# vtk DataFile Version 4.2 
Solution PDE problem 

ASCII 

DATASET UNSTRUCTURED_GRID 
POINTS 8261 float 
0.000000 0.000000 0.000000
0.050000 0.000000 0.000000
0.150000 0.000000 0.000000
0.250000 0.000000 0.000000
0.350000 0.000000 0.000000
0.500000 0.000000 0.000000
0.650000 0.000000 0.000000
0.750000 0.000000 0.000000
0.850000 0.000000 0.000000
0.950000 0.000000 0.000000
1.000000 0.000000 0.000000
0.000000 0.050000 0.000000
0.050000 0.050000 0.000000
0.150000 0.050000 0.000000
0.250000 0.050000 0.000000
0.350000 0.050000 0.000000
0.500000 0.050000 0.000000
0.650000 0.050000 0.000000
0.750000 0.050000 0.000000
0.850000 0.050000 0.000000
0.950000 0.050000 0.000000
1.000000 0.050000 0.000000
0.000000 0.150000 0.000000
0.050000 0.150000 0.000000
0.150000 0.150000 0.000000
0.250000 0.150000 0.000000
0.350000 0.150000 0.000000
0.500000 0.150000 0.000000
0.650000 0.150000 0.000000
0.750000 0.150000 0.000000
0.850000 0.150000 0.000000
0.950000 0.150000 0.000000
1.000000 0.150000 0.000000
0.000000 0.250000 0.000000
0.050000 0.250000 0.000000
0.150000 0.250000 0.000000
0.250000 0.250000 0.000000
0.350000 0.250000 0.000000
0.500000 0.250000 0.000000
0.650000 0.250000 0.000000
0.750000 0.250000 0.000000
0.850000 0.250000 0.000000
0.950000 0.250000 0.000000
1.000000 0.250000 0.000000
0.000000 0.350000 0.000000
0.050000 0.350000 0.000000
0.150000 0.350000 0.000000
0.250000 0.350000 0.000000
0.350000 0.350000 0.000000
0.500000 0.350000 0.000000
0.650000 0.350000 0.000000
0.750000 0.350000 0.000000
0.850000 0.350000 0.000000
0.950000 0.350000 0.000000
1.000000 0.350000 0.000000
0.000000 0.500000 0.000000
0.050000 0.500000 0.000000
0.150000 0.500000 0.000000
0.250000 0.500000 0.000000
0.350000 0.500000 0.000000
0.500000 0.500000 0.000000
0.650000 0.500000 0.000000
0.750000 0.500000 0.000000
0.850000 0.500000 0.000000
0.950000 0.500000 0.000000
1.000000 0.500000 0.000000
0.000000 0.650000 0.000000
0.050000 0.650000 0.000000
0.150000 0.650000 0.000000
0.250000 0.650000 0.000000
0.350000 0.650000 0.000000
0.500000 0.650000 0.000000
0.650000 0.650000 0.000000
0.750000 0.650000 0.000000
0.850000 0.650000 0.000000
0.950000 0.650000 0.000000
1.000000 0.650000 0.000000
0.000000 0.750000 0.000000
0.050000 0.750000 0.000000
0.150000 0.750000 0.000000
0.250000 0.750000 0.000000
0.350000 0.750000 0.000000
0.500000 0.750000 0.000000
0.650000 0.750000 0.000000
0.750000 0.750000 0.000000
0.850000 0.750000 0.000000
0.950000 0.750000 0.000000
1.000000 0.750000 0.000000
0.000000 0.850000 0.000000
0.050000 0.850000 0.000000
0.150000 0.850000 0.000000
0.250000 0.850000 0.000000
0.350000 0.850000 0.000000
0.500000 0.850000 0.000000
0.650000 0.850000 0.000000
0.750000 0.850000 0.000000
0.850000 0.850000 0.000000
0.950000 0.850000 0.000000
1.000000 0.850000 0.000000
0.000000 0.950000 0.000000
0.050000 0.950000 0.000000
0.150000 0.950000 0.000000
0.250000 0.950000 0.000000
0.350000 0.950000 0.000000
0.500000 0.950000 0.000000
0.650000 0.950000 0.000000
0.750000 0.950000 0.000000
0.850000 0.950000 0.000000
0.950000 0.950000 0.000000
1.000000 0.950000 0.000000
0.000000 1.000000 0.000000
0.050000 1.000000 0.000000
0.150000 1.000000 0.000000
0.250000 1.000000 0.000000
0.350000 1.000000 0.000000
0.500000 1.000000 0.000000
0.650000 1.000000 0.000000
0.750000 1.000000 0.000000
0.850000 1.000000 0.000000
0.950000 1.000000 0.000000
1.000000 1.000000 0.000000
0.000000 0.000000 0.050000
0.050000 0.000000 0.050000
0.150000 0.000000 0.050000
0.250000 0.000000 0.050000
0.350000 0.000000 0.050000
0.500000 0.000000 0.050000
0.650000 0.000000 0.050000
0.750000 0.000000 0.050000
0.850000 0.000000 0.050000
0.950000 0.000000 0.050000
1.000000 0.000000 0.050000
0.000000 0.050000 0.050000
0.050000 0.050000 0.050000
0.150000 0.050000 0.050000
0.250000 0.050000 0.050000
0.350000 0.050000 0.050000
0.500000 0.050000 0.050000
0.650000 0.050000 0.050000
0.750000 0.050000 0.050000
0.850000 0.050000 0.050000
0.950000 0.050000 0.050000
1.000000 0.050000 0.050000
0.000000 0.150000 0.050000
0.050000 0.150000 0.050000
0.150000 0.150000 0.050000
0.250000 0.150000 0.050000
0.350000 0.150000 0.050000
0.500000 0.150000 0.050000
0.650000 0.150000 0.050000
0.750000 0.150000 0.050000
0.850000 0.150000 0.050000
0.950000 0.150000 0.050000
1.000000 0.150000 0.050000
0.000000 0.250000 0.050000
0.050000 0.250000 0.050000
0.150000 0.250000 0.050000
0.250000 0.250000 0.050000
0.350000 0.250000 0.050000
0.500000 0.250000 0.050000
0.650000 0.250000 0.050000
0.750000 0.250000 0.050000
0.850000 0.250000 0.050000
0.950000 0.250000 0.050000
1.000000 0.250000 0.050000
0.000000 0.350000 0.050000
0.050000 0.350000 0.050000
0.150000 0.350000 0.050000
0.250000 0.350000 0.050000
0.350000 0.350000 0.050000
0.500000 0.350000 0.050000
0.650000 0.350000 0.050000
0.750000 0.350000 0.050000
0.850000 0.350000 0.050000
0.950000 0.350000 0.050000
1.000000 0.350000 0.050000
0.000000 0.500000 0.050000
0.050000 0.500000 0.050000
0.150000 0.500000 0.050000
0.250000 0.500000 0.050000
0.350000 0.500000 0.050000
0.500000 0.500000 0.050000
0.650000 0.500000 0.050000
0.750000 0.500000 0.050000
0.850000 0.500000 0.050000
0.950000 0.500000 0.050000
1.000000 0.500000 0.050000
0.000000 0.650000 0.050000
0.050000 0.650000 0.050000
0.150000 0.650000 0.050000
0.250000 0.650000 0.050000
0.350000 0.650000 0.050000
0.500000 0.650000 0.050000
0.650000 0.650000 0.050000
0.750000 0.650000 0.050000
0.850000 0.650000 0.050000
0.950000 0.650000 0.050000
1.000000 0.650000 0.050000
0.000000 0.750000 0.050000
0.050000 0.750000 0.050000
0.150000 0.750000 0.050000
0.250000 0.750000 0.050000
0.350000 0.750000 0.050000
0.500000 0.750000 0.050000
0.650000 0.750000 0.050000
0.750000 0.750000 0.050000
0.850000 0.750000 0.050000
0.950000 0.750000 0.050000
1.000000 0.750000 0.050000
0.000000 0.850000 0.050000
0.050000 0.850000 0.050000
0.150000 0.850000 0.050000
0.250000 0.850000 0.050000
0.350000 0.850000 0.050000
0.500000 0.850000 0.050000
0.650000 0.850000 0.050000
0.750000 0.850000 0.050000
0.850000 0.850000 0.050000
0.950000 0.850000 0.050000
1.000000 0.850000 0.050000
0.000000 0.950000 0.050000
0.050000 0.950000 0.050000
0.150000 0.950000 0.050000
0.250000 0.950000 0.050000
0.350000 0.950000 0.050000
0.500000 0.950000 0.050000
0.650000 0.950000 0.050000
0.750000 0.950000 0.050000
0.850000 0.950000 0.050000
0.950000 0.950000 0.050000
1.000000 0.950000 0.050000
0.000000 1.000000 0.050000
0.050000 1.000000 0.050000
0.150000 1.000000 0.050000
0.250000 1.000000 0.050000
0.350000 1.000000 0.050000
0.500000 1.000000 0.050000
0.650000 1.000000 0.050000
0.750000 1.000000 0.050000
0.850000 1.000000 0.050000
0.950000 1.000000 0.050000
1.000000 1.000000 0.050000
0.000000 0.000000 0.150000
0.050000 0.000000 0.150000
0.150000 0.000000 0.150000
0.250000 0.000000 0.150000
0.350000 0.000000 0.150000
0.500000 0.000000 0.150000
0.650000 0.000000 0.150000
0.750000 0.000000 0.150000
0.850000 0.000000 0.150000
0.950000 0.000000 0.150000
1.000000 0.000000 0.150000
0.000000 0.050000 0.150000
0.050000 0.050000 0.150000
0.150000 0.050000 0.150000
0.250000 0.050000 0.150000
0.350000 0.050000 0.150000
0.500000 0.050000 0.150000
0.650000 0.050000 0.150000
0.750000 0.050000 0.150000
0.850000 0.050000 0.150000
0.950000 0.050000 0.150000
1.000000 0.050000 0.150000
0.000000 0.150000 0.150000
0.050000 0.150000 0.150000
0.150000 0.150000 0.150000
0.250000 0.150000 0.150000
0.350000 0.150000 0.150000
0.500000 0.150000 0.150000
0.650000 0.150000 0.150000
0.750000 0.150000 0.150000
0.850000 0.150000 0.150000
0.950000 0.150000 0.150000
1.000000 0.150000 0.150000
0.000000 0.250000 0.150000
0.050000 0.250000 0.150000
0.150000 0.250000 0.150000
0.250000 0.250000 0.150000
0.350000 0.250000 0.150000
0.500000 0.250000 0.150000
0.650000 0.250000 0.150000
0.750000 0.250000 0.150000
0.850000 0.250000 0.150000
0.950000 0.250000 0.150000
1.000000 0.250000 0.150000
0.000000 0.350000 0.150000
0.050000 0.350000 0.150000
0.150000 0.350000 0.150000
0.250000 0.350000 0.150000
0.350000 0.350000 0.150000
0.500000 0.350000 0.150000
0.650000 0.350000 0.150000
0.750000 0.350000 0.150000
0.850000 0.350000 0.150000
0.950000 0.350000 0.150000
1.000000 0.350000 0.150000
0.000000 0.500000 0.150000
0.050000 0.500000 0.150000
0.150000 0.500000 0.150000
0.250000 0.500000 0.150000
0.350000 0.500000 0.150000
0.500000 0.500000 0.150000
0.650000 0.500000 0.150000
0.750000 0.500000 0.150000
0.850000 0.500000 0.150000
0.950000 0.500000 0.150000
1.000000 0.500000 0.150000
0.000000 0.650000 0.150000
0.050000 0.650000 0.150000
0.150000 0.650000 0.150000
0.250000 0.650000 0.150000
0.350000 0.650000 0.150000
0.500000 0.650000 0.150000
0.650000 0.650000 0.150000
0.750000 0.650000 0.150000
0.850000 0.650000 0.150000
0.950000 0.650000 0.150000
1.000000 0.650000 0.150000
0.000000 0.750000 0.150000
0.050000 0.750000 0.150000
0.150000 0.750000 0.150000
0.250000 0.750000 0.150000
0.350000 0.750000 0.150000
0.500000 0.750000 0.150000
0.650000 0.750000 0.150000
0.750000 0.750000 0.150000
0.850000 0.750000 0.150000
0.950000 0.750000 0.150000
1.000000 0.750000 0.150000
0.000000 0.850000 0.150000
0.050000 0.850000 0.150000
0.150000 0.850000 0.150000
0.250000 0.850000 0.150000
0.350000 0.850000 0.150000
0.500000 0.850000 0.150000
0.650000 0.850000 0.150000
0.750000 0.850000 0.150000
0.850000 0.850000 0.150000
0.950000 0.850000 0.150000
1.000000 0.850000 0.150000
0.000000 0.950000 0.150000
0.050000 0.950000 0.150000
0.150000 0.950000 0.150000
0.250000 0.950000 0.150000
0.350000 0.950000 0.150000
0.500000 0.950000 0.150000
0.650000 0.950000 0.150000
0.750000 0.950000 0.150000
0.850000 0.950000 0.150000
0.950000 0.950000 0.150000
1.000000 0.950000 0.150000
0.000000 1.000000 0.150000
0.050000 1.000000 0.150000
0.150000 1.000000 0.150000
0.250000 1.000000 0.150000
0.350000 1.000000 0.150000
0.500000 1.000000 0.150000
0.650000 1.000000 0.150000
0.750000 1.000000 0.150000
0.850000 1.000000 0.150000
0.950000 1.000000 0.150000
1.000000 1.000000 0.150000
0.000000 0.000000 0.250000
0.050000 0.000000 0.250000
0.150000 0.000000 0.250000
[...]
POINT_DATA 8261 
SCALARS scalars float
LOOKUP_TABLE default 
-0.416667
-0.337500
-0.204167
-0.104167
-0.037500
0.000000
-0.037500
-0.104167
-0.204167
-0.337500
-0.416667
-0.337500
-0.258333
-0.125000
-0.025000
0.041667
0.079167
0.041667
-0.025000
-0.125000
-0.258333
-0.337500
-0.204167
-0.125000
0.008333
0.108333
0.175000
0.212500
0.175000
0.108333
0.008333
-0.125000
-0.204167
-0.104167
-0.025000
0.108333
0.208333
0.275000
0.312500
0.275000
0.208333
0.108333
-0.025000
-0.104167
-0.037500
0.041667
0.175000
0.275000
0.341667
0.379167
0.341667
0.275000
0.175000
0.041667
-0.037500
0.000000
0.079167
0.212500
0.312500
0.379167
0.416667
0.379167
0.312500
0.212500
0.079167
0.000000
-0.037500
0.041667
0.175000
0.275000
0.341667
0.379167
0.341667
0.275000
0.175000
0.041667
-0.037500
-0.104167
-0.025000
0.108333
0.208333
0.275000
0.312500
0.275000
0.208333
0.108333
-0.025000
-0.104167
-0.204167
-0.125000
0.008333
0.108333
0.175000
0.212500
0.175000
0.108333
0.008333
-0.125000
-0.204167
-0.337500
-0.258333
-0.125000
-0.025000
0.041667
0.079167
0.041667
-0.025000
-0.125000
-0.258333
-0.337500
-0.416667
-0.337500
-0.204167
-0.104167
-0.037500
0.000000
-0.037500
-0.104167
-0.204167
-0.337500
-0.416667
-0.337500
-0.258333
-0.125000
-0.025000
0.041667
0.079167
0.041667
-0.025000
-0.125000
-0.258333
-0.337500
-0.258333
-0.179167
-0.045833
0.054167
0.120833
0.158333
0.120833
0.054167
-0.045833
-0.179167
-0.258333
-0.125000
-0.045833
0.087500
0.187500
0.254167
0.291667
0.254167
0.187500
0.087500
-0.045833
-0.125000
-0.025000
0.054167
0.187500
0.287500
0.354167
0.391667
0.354167
0.287500
0.187500
0.054167
-0.025000
0.041667
0.120833
0.254167
0.354167
0.420833
0.458333
0.420833
0.354167
0.254167
0.120833
0.041667
0.079167
0.158333
0.291667
0.391667
0.458333
0.495833
0.458333
0.391667
0.291667
0.158333
0.079167
0.041667
0.120833
0.254167
0.354167
0.420833
0.458333
0.420833
0.354167
0.254167
0.120833
0.041667
-0.025000
0.054167
0.187500
0.287500
0.354167
0.391667
0.354167
0.287500
0.187500
0.054167
-0.025000
-0.125000
-0.045833
0.087500
0.187500
0.254167
0.291667
0.254167
0.187500
0.087500
-0.045833
-0.125000
-0.258333
-0.179167
-0.045833
0.054167
0.120833
0.158333
0.120833
0.054167
-0.045833
-0.179167
-0.258333
-0.337500
-0.258333
-0.125000
-0.025000
0.041667
0.079167
0.041667
-0.025000
-0.125000
-0.258333
-0.337500
-0.204167
-0.125000
0.008333
0.108333
0.175000
0.212500
0.175000
0.108333
0.008333
-0.125000
-0.204167
-0.125000
-0.045833
0.087500
0.187500
0.254167
0.291667
0.254167
0.187500
0.087500
-0.045833
-0.125000
0.008333
0.087500
0.220833
0.320833
0.387500
0.425000
0.387500
0.320833
0.220833
0.087500
0.008333
0.108333
0.187500
0.320833
0.420833
0.487500
0.525000
0.487500
0.420833
0.320833
0.187500
0.108333
0.175000
0.254167
0.387500
0.487500
0.554167
0.591667
0.554167
0.487500
0.387500
0.254167
0.175000
0.212500
0.291667
0.425000
0.525000
0.591667
0.629167
0.591667
0.525000
0.425000
0.291667
0.212500
0.175000
0.254167
0.387500
0.487500
0.554167
0.591667
0.554167
0.487500
0.387500
0.254167
0.175000
0.108333
0.187500
0.320833
0.420833
0.487500
0.525000
0.487500
0.420833
0.320833
0.187500
0.108333
0.008333
0.087500
0.220833
0.320833
0.387500
0.425000
0.387500
0.320833
0.220833
0.087500
0.008333
-0.125000
-0.045833
0.087500
0.187500
0.254167
0.291667
0.254167
0.187500
0.087500
-0.045833
-0.125000
-0.204167
-0.125000
0.008333
0.108333
0.175000
0.212500
0.175000
0.108333
0.008333
-0.125000
-0.204167
-0.104167
-0.025000
0.108333
0.208333
0.275000
0.312500
0.275000
0.208333
0.108333
-0.025000
-0.104167
-0.025000
0.054167
0.187500
0.287500
0.354167
0.391667
0.354167
0.287500
0.187500
0.054167
-0.025000
0.108333
0.187500
0.320833
0.420833
0.487500
0.525000
0.487500
0.420833
0.320833
0.187500
0.108333
0.208333
0.287500
0.420833
0.520833
0.587500
0.625000
0.587500
0.520833
0.420833
0.287500
0.208333
0.275000
0.354167
0.487500
0.587500
0.654167
0.691667
0.654167
0.587500
0.487500
0.354167
0.275000
0.312500
0.391667
0.525000
0.625000
0.691667
0.729167
0.691667
0.625000
0.525000
0.391667
0.312500
0.275000
0.354167
0.487500
0.587500
0.654167
0.691667
0.654167
0.587500
0.487500
0.354167
0.275000
0.208333
0.287500
0.420833
0.520833
0.587500
0.625000
0.587500
0.520833
0.420833
0.287500
0.208333
0.108333
0.187500
0.320833
0.420833
0.487500
0.525000
0.487500
0.420833
0.320833
0.187500
0.108333
-0.025000
0.054167
0.187500
0.287500
0.354167
0.391667
0.354167
0.287500
0.187500
0.054167
-0.025000
-0.104167
-0.025000
0.108333
0.208333
0.275000
0.312500
0.275000
0.208333
0.108333
-0.025000
-0.104167
-0.037500
0.041667
0.175000
0.275000
0.341667
0.379167
0.341667
0.275000
0.175000
0.041667
-0.037500
0.041667
0.120833
0.254167
0.354167
0.420833
0.458333
0.420833
0.354167
0.254167
0.120833
0.041667
0.175000
0.254167
0.387500
0.487500
0.554167
0.591667
0.554167
0.487500
0.387500
0.254167
0.175000
0.275000
0.354167
0.487500
0.587500
0.654167
0.691667
0.654167
0.587500
0.487500
0.354167
0.275000
0.341667
0.420833
0.554167
0.654167
0.720833
0.758333
0.720833
0.654167
0.554167
0.420833
0.341667
0.379167
0.458333
0.591667
0.691667
0.758333
0.795833
0.758333
0.691667
0.591667
0.458333
0.379167
0.341667
0.420833
0.554167
0.654167
0.720833
0.758333
0.720833
0.654167
0.554167
0.420833
0.341667
0.275000
0.354167
0.487500
0.587500
0.654167
0.691667
0.654167
0.587500
0.487500
0.354167
0.275000
0.175000
0.254167
0.387500
0.487500
0.554167
0.591667
0.554167
0.487500
0.387500
0.254167
0.175000
0.041667
0.120833
0.254167
0.354167
0.420833
0.458333
0.420833
0.354167
0.254167
0.120833
0.041667
-0.037500
0.041667
0.175000
0.275000
0.341667
0.379167
0.341667
0.275000
0.175000
0.041667
-0.037500
0.000000
0.079167
0.212500
0.312500
0.379167
0.416667
0.379167
0.312500
0.212500
0.079167
0.000000
0.079167
0.158333
0.291667
0.391667
0.458333
0.495833
0.458333
0.391667
0.291667
0.158333
0.079167
0.212500
0.291667
0.425000
0.525000
0.591667
0.629167
0.591667
0.525000
0.425000
0.291667
0.212500
0.312500
0.391667
0.525000
0.625000
0.691667
0.729167
0.691667
0.625000
0.525000
0.391667
0.312500
0.379167
0.458333
0.591667
0.691667
0.758333
0.795833
0.758333
0.691667
0.591667
0.458333
0.379167
0.416667
0.495833
0.629167
0.729167
0.795833
0.833333
0.795833
0.729167
0.629167
0.495833
0.416667
0.379167
0.458333
0.591667
0.691667
0.758333
0.795833
0.758333
0.691667
0.591667
0.458333
0.379167
0.312500
0.391667
0.525000
0.625000
0.691667
0.729167
0.691667
0.625000
0.525000
0.391667
0.312500
0.212500
0.291667
0.425000
0.525000
0.591667
0.629167
0.591667
0.525000
0.425000
0.291667
0.212500
0.079167
0.158333
0.291667
0.391667
0.458333
0.495833
0.458333
0.391667
0.291667
0.158333
0.079167
0.000000
0.079167
0.212500
0.312500
0.379167
0.416667
0.379167
0.312500
0.212500
0.079167
0.000000
-0.037500
0.041667
0.175000
0.275000
0.341667
0.379167
0.341667
0.275000
0.175000
0.041667
-0.037500
0.041667
0.120833
0.254167
0.354167
0.420833
0.458333
0.420833
0.354167
0.254167
0.120833
0.041667
0.175000
0.254167
0.387500
0.487500
0.554167
0.591667
0.554167
0.487500
0.387500
0.254167
0.175000
0.275000
0.354167
0.487500
0.587500
0.654167
0.691667
0.654167
0.587500
0.487500
0.354167
0.275000
0.341667
0.420833
0.554167
0.654167
0.720833
0.758333
0.720833
0.654167
0.554167
0.420833
0.341667
0.379167
0.458333
0.591667
0.691667
0.758333
0.795833
0.758333
0.691667
0.591667
0.458333
0.379167
0.341667
0.420833
0.554167
0.654167
0.720833
0.758333
0.720833
0.654167
0.554167
0.420833
0.341667
0.275000
0.354167
0.487500
0.587500
0.654167
0.691667
0.654167
0.587500
0.487500
0.354167
0.275000
0.175000
0.254167
0.387500
0.487500
0.554167
0.591667
0.554167
0.487500
0.387500
0.254167
0.175000
0.041667
0.120833
0.254167
0.354167
0.420833
0.458333
0.420833
0.354167
0.254167
0.120833
0.041667
-0.037500
0.041667
0.175000
0.275000
0.341667
0.379167
0.341667
0.275000
0.175000
0.041667
-0.037500
-0.104167
-0.025000
0.108333
0.208333
0.275000
0.312500
0.275000
0.208333
0.108333
-0.025000
-0.104167
-0.025000
0.054167
0.187500
0.287500
0.354167
0.391667
0.354167
0.287500
0.187500
0.054167
-0.025000
0.108333
0.187500
0.320833
0.420833
0.487500
0.525000
0.487500
0.420833
0.320833
0.187500
0.108333
0.208333
0.287500
0.420833
0.520833
0.587500
0.625000
0.587500
0.520833
0.420833
0.287500
0.208333
0.275000
0.354167
0.487500
0.587500
0.654167
0.691667
0.654167
0.587500
0.487500
0.354167
0.275000
0.312500
0.391667
0.525000
0.625000
0.691667
0.729167
0.691667
0.625000
0.525000
0.391667
0.312500
0.275000
0.354167
0.487500
0.587500
0.654167
0.691667
0.654167
0.587500
0.487500
0.354167
0.275000
0.208333
0.287500
0.420833
0.520833
0.587500
0.625000
0.587500
0.520833
0.420833
0.287500
0.208333
0.108333
0.187500
0.320833
0.420833
0.487500
0.525000
0.487500
0.420833
0.320833
0.187500
0.108333
-0.025000
0.054167
0.187500
0.287500
0.354167
0.391667
0.354167
0.287500
0.187500
0.054167
-0.025000
-0.104167
-0.025000
0.108333
0.208333
0.275000
0.312500
0.275000
0.208333
0.108333
-0.025000
-0.104167
-0.204167
-0.125000
0.008333
0.108333
0.175000
0.212500
0.175000
0.108333
0.008333
-0.125000
-0.204167
-0.125000
-0.045833
0.087500
0.187500
0.254167
0.291667
0.254167
0.187500
0.087500
-0.045833
-0.125000
0.008333
0.087500
0.220833
0.320833
0.387500
0.425000
0.387500
0.320833
0.220833
0.087500
0.008333
0.108333
0.187500
0.320833
0.420833
0.487500
0.525000
0.487500
0.420833
0.320833
0.187500
0.108333
0.175000
0.254167
0.387500
0.487500
0.554167
0.591667
0.554167
0.487500
0.387500
0.254167
0.175000
0.212500
0.291667
0.425000
0.525000
0.591667
0.629167
0.591667
0.525000
0.425000
0.291667
0.212500
0.175000
0.254167
0.387500
0.487500
0.554167
0.591667
0.554167
0.487500
0.387500
0.254167
0.175000
0.108333
0.187500
0.320833
0.420833
0.487500
0.525000
0.487500
0.420833
0.320833
0.187500
0.108333
0.008333
0.087500
0.220833
0.320833
0.387500
0.425000
0.387500
0.320833
0.220833
0.087500
0.008333
-0.125000
-0.045833
0.087500
0.187500
0.254167
0.291667
0.254167
0.187500
0.087500
-0.045833
-0.125000
-0.204167
-0.125000
0.008333
0.108333
0.175000
0.212500
0.175000
0.108333
0.008333
-0.125000
-0.204167
-0.337500
-0.258333
-0.125000
-0.025000
0.041667
0.079167
0.041667
-0.025000
-0.125000
-0.258333
-0.337500
-0.258333
-0.179167
-0.045833
0.054167
0.120833
0.158333
0.120833
0.054167
-0.045833
-0.179167
-0.258333
-0.125000
-0.045833
0.087500
0.187500
0.254167
0.291667
0.254167
0.187500
0.087500
-0.045833
-0.125000
-0.025000
0.054167
0.187500
0.287500
0.354167
0.391667
0.354167
0.287500
0.187500
0.054167
-0.025000
0.041667
0.120833
0.254167
0.354167
0.420833
0.458333
0.420833
0.354167
0.254167
0.120833
0.041667
0.079167
0.158333
0.291667
0.391667
0.458333
0.495833
0.458333
0.391667
0.291667
0.158333
0.079167
0.041667
0.120833
0.254167
0.354167
0.420833
0.458333
0.420833
0.354167
0.254167
0.120833
0.041667
-0.025000
0.054167
0.187500
0.287500
0.354167
0.391667
0.354167
0.287500
0.187500
0.054167
-0.025000
-0.125000
-0.045833
0.087500
0.187500
0.254167
0.291667
0.254167
0.187500
0.087500
-0.045833
-0.125000
-0.258333
-0.179167
-0.045833
0.054167
0.120833
0.158333
0.120833
0.054167
-0.045833
-0.179167
-0.258333
-0.337500
-0.258333
-0.125000
-0.025000
0.041667
0.079167
0.041667
-0.025000
-0.125000
-0.258333
-0.337500
-0.416667
-0.337500
-0.204167
-0.104167
-0.037500
0.000000
-0.037500
-0.104167
-0.204167
-0.337500
-0.416667
-0.337500
-0.258333
-0.125000
-0.025000
0.041667
0.079167
0.041667
-0.025000
-0.125000
-0.258333
-0.337500
-0.204167
-0.125000
0.008333
0.108333
0.175000
0.212500
0.175000
0.108333
0.008333
-0.125000
-0.204167
-0.104167
-0.025000
0.108333
0.208333
0.275000
0.312500
0.275000
0.208333
0.108333
-0.025000
-0.104167
-0.037500
0.041667
0.175000
0.275000
0.341667
0.379167
0.341667
0.275000
0.175000
0.041667
-0.037500
0.000000
0.079167
0.212500
0.312500
0.379167
0.416667
0.379167
0.312500
0.212500
0.079167
0.000000
-0.037500
0.041667
0.175000
0.275000
0.341667
0.379167
0.341667
0.275000
0.175000
0.041667
-0.037500
-0.104167
-0.025000
0.108333
0.208333
0.275000
0.312500
0.275000
0.208333
0.108333
-0.025000
-0.104167
-0.204167
-0.125000
0.008333
0.108333
0.175000
0.212500
0.175000
0.108333
0.008333
-0.125000
-0.204167
-0.337500
-0.258333
-0.125000
-0.025000
0.041667
0.079167
0.041667
-0.025000
-0.125000
-0.258333
-0.337500
-0.416667
-0.337500
-0.204167
-0.104167
-0.037500
0.000000
-0.037500
-0.104167
-0.204167
-0.337500
-0.416667
-0.296875
-0.376042
-0.296875
-0.335417
-0.335417
-0.256250
-0.217708
-0.217708
-0.217708
-0.256250
-0.256250
-0.376042
-0.296875
-0.296875
-0.335417
-0.296875
-0.296875
-0.376042
-0.266667
-0.226042
-0.226042
-0.108333
-0.146875
-0.146875
-0.187500
-0.084375
-0.163542
-0.122917
-0.187500
-0.163542
-0.084375
-0.063542
-0.150000
-0.063542
-0.109375
-0.109375
-0.022917
0.015625
0.008333
0.015625
-0.030208
-0.030208
-0.070833
-0.070833
-0.066667
-0.026042
-0.026042
0.091667
0.053125
0.053125
0.012500
0.082292
0.003125
0.043750
0.012500
0.003125
0.082292
0.040625
-0.009375
0.040625
0.031250
0.031250
0.081250
0.119792
0.148958
0.119792
0.110417
0.110417
0.069792
0.069792
-0.009375
0.031250
0.031250
0.148958
0.110417
0.110417
0.069792
0.082292
0.003125
0.043750
0.069792
0.003125
0.082292
-0.063542
-0.066667
-0.063542
-0.026042
-0.026042
-0.022917
0.015625
0.091667
0.015625
0.053125
0.053125
0.012500
0.012500
-0.150000
-0.109375
-0.109375
0.008333
-0.030208
-0.030208
-0.070833
-0.084375
-0.163542
-0.122917
-0.070833
-0.163542
-0.084375
-0.296875
-0.266667
-0.296875
-0.226042
-0.226042
-0.256250
-0.217708
-0.108333
-0.217708
-0.146875
-0.146875
-0.187500
-0.187500
-0.376042
-0.335417
-0.335417
-0.217708
-0.256250
-0.256250
-0.296875
-0.296875
-0.376042
-0.335417
-0.296875
-0.376042
-0.296875
-0.266667
-0.226042
-0.226042
-0.084375
-0.187500
-0.163542
-0.146875
-0.122917
-0.108333
-0.146875
-0.163542
-0.187500
-0.084375
-0.054167
-0.116667
-0.013542
0.025000
0.025000
0.048958
-0.037500
-0.013542
-0.054167
0.000000
0.141667
0.079167
0.103125
0.125000
0.086458
0.062500
0.045833
0.148958
0.112500
0.083333
0.153125
0.191667
0.225000
0.215625
0.162500
0.186458
0.145833
0.140625
0.282292
0.219792
0.243750
0.229167
0.190625
0.203125
0.150000
0.253125
0.112500
0.140625
0.153125
0.191667
0.282292
0.215625
0.219792
0.243750
0.203125
0.083333
0.225000
0.162500
0.186458
0.125000
0.086458
0.145833
0.045833
0.148958
-0.054167
-0.000000
-0.013542
0.025000
0.141667
0.048958
0.079167
0.103125
0.062500
-0.116667
0.025000
-0.037500
-0.013542
-0.108333
-0.146875
-0.054167
-0.187500
-0.084375
-0.266667
-0.226042
-0.226042
-0.187500
-0.084375
-0.163542
-0.146875
-0.122917
-0.163542
-0.070833
-0.109375
-0.030208
0.008333
0.015625
0.015625
-0.030208
-0.022917
-0.150000
-0.063542
-0.063542
-0.109375
-0.070833
-0.000000
0.125000
0.079167
0.086458
0.141667
0.103125
0.045833
0.062500
0.148958
0.162500
0.116667
0.203125
0.241667
0.241667
0.248958
0.195833
0.203125
0.162500
0.200000
0.325000
0.279167
0.286458
0.308333
0.269792
0.245833
0.229167
0.315625
0.266667
0.257292
0.307292
0.345833
0.382292
0.353125
0.336458
0.343750
0.303125
0.257292
0.382292
0.336458
0.343750
0.308333
0.269792
0.303125
0.229167
0.315625
0.162500
0.200000
0.203125
0.241667
0.325000
0.248958
0.279167
0.286458
0.245833
0.116667
0.241667
0.195833
0.203125
0.141667
0.103125
0.162500
0.062500
0.148958
-0.070833
0.000000
-0.030208
0.008333
0.125000
0.015625
0.079167
0.086458
0.045833
-0.109375
0.015625
-0.030208
-0.022917
-0.070833
-0.109375
-0.063542
-0.150000
-0.063542
-0.066667
-0.026042
-0.026042
0.082292
0.012500
0.003125
0.053125
0.043750
0.091667
0.053125
0.003125
0.012500
0.082292
0.145833
0.083333
0.186458
0.225000
0.191667
0.215625
0.162500
0.153125
0.112500
0.200000
0.308333
0.279167
0.269792
0.325000
0.286458
0.229167
0.245833
0.315625
0.312500
0.283333
0.353125
0.391667
0.391667
0.382292
0.362500
0.353125
0.312500
0.340625
0.448958
0.419792
0.410417
0.429167
0.390625
0.369792
0.350000
0.419792
0.312500
0.340625
0.353125
0.391667
0.448958
0.382292
0.419792
0.410417
0.369792
0.283333
0.391667
0.362500
0.353125
0.325000
0.286458
0.312500
0.245833
0.315625
0.145833
0.200000
0.186458
0.225000
0.308333
0.215625
0.279167
0.269792
0.229167
0.083333
0.191667
0.162500
0.153125
0.091667
0.053125
0.112500
0.012500
0.082292
-0.066667
-0.026042
-0.026042
0.012500
0.082292
0.003125
0.053125
0.043750
0.003125
0.069792
0.031250
0.110417
0.148958
0.119792
0.119792
0.110417
0.081250
-0.009375
0.040625
0.040625
0.031250
0.069792
0.140625
0.229167
0.219792
0.190625
0.282292
0.243750
0.150000
0.203125
0.253125
0.303125
0.257292
0.343750
0.382292
0.345833
0.353125
0.336458
0.307292
0.266667
0.340625
0.429167
0.419792
0.390625
0.448958
0.410417
0.350000
0.369792
0.419792
0.407292
0.397917
0.447917
0.486458
0.486458
0.457292
0.477083
0.447917
0.407292
0.397917
0.486458
0.477083
0.447917
0.448958
0.410417
0.407292
0.369792
0.419792
0.303125
0.340625
0.343750
0.382292
0.429167
0.353125
0.419792
0.390625
0.350000
0.257292
0.345833
0.336458
0.307292
0.282292
0.243750
0.266667
0.203125
0.253125
0.069792
0.140625
0.110417
0.148958
0.229167
0.119792
0.219792
0.190625
0.150000
0.031250
0.119792
0.110417
0.081250
0.069792
0.031250
0.040625
-0.009375
0.040625
-0.009375
0.031250
0.031250
0.082292
0.069792
0.003125
0.110417
0.043750
0.148958
0.110417
0.003125
0.069792
0.082292
0.203125
0.140625
0.243750
0.282292
0.191667
0.215625
0.219792
0.153125
0.112500
0.257292
0.308333
0.336458
0.269792
0.382292
0.343750
0.229167
0.303125
0.315625
0.369792
0.340625
0.410417
0.448958
0.391667
0.382292
0.419792
0.353125
0.312500
0.397917
0.448958
0.477083
0.410417
0.486458
0.447917
0.369792
0.407292
0.419792
0.369792
0.397917
0.410417
0.448958
0.448958
0.382292
0.477083
0.410417
0.369792
0.340625
0.391667
0.419792
0.353125
0.382292
0.343750
0.312500
0.303125
0.315625
0.203125
0.257292
0.243750
0.282292
0.308333
0.215625
0.336458
0.269792
0.229167
0.140625
0.191667
0.219792
0.153125
0.148958
0.110417
0.112500
0.069792
0.082292
-0.009375
0.031250
0.031250
0.069792
0.082292
0.003125
0.110417
0.043750
0.003125
0.012500
-0.026042
0.053125
0.091667
0.015625
0.015625
0.053125
-0.022917
-0.066667
-0.063542
-0.063542
-0.026042
0.012500
0.083333
0.125000
0.162500
0.086458
0.225000
0.186458
0.045833
0.145833
0.148958
0.245833
0.200000
0.286458
0.325000
0.241667
0.248958
0.279167
0.203125
0.162500
0.283333
0.325000
0.362500
0.286458
0.391667
0.353125
0.245833
0.312500
0.315625
0.350000
0.340625
0.390625
0.429167
0.382292
0.353125
0.419792
0.343750
0.303125
0.340625
0.382292
0.419792
0.343750
0.391667
0.353125
0.303125
0.312500
0.315625
0.245833
0.283333
0.286458
0.325000
0.325000
0.248958
0.362500
0.286458
0.245833
0.200000
0.241667
0.279167
0.203125
0.225000
0.186458
0.162500
0.145833
0.148958
0.012500
0.083333
0.053125
0.091667
0.125000
0.015625
0.162500
0.086458
0.045833
-0.026042
0.015625
0.053125
-0.022917
0.012500
-0.026042
-0.063542
-0.066667
-0.063542
-0.150000
-0.109375
-0.109375
-0.084375
-0.070833
-0.163542
-0.030208
-0.122917
0.008333
-0.030208
-0.163542
-0.070833
-0.084375
0.062500
-0.000000
0.103125
0.141667
0.025000
0.048958
0.079167
-0.013542
-0.054167
0.116667
0.141667
0.195833
0.103125
0.241667
0.203125
0.062500
0.162500
0.148958
0.229167
0.200000
0.269792
0.308333
0.225000
0.215625
0.279167
0.186458
0.145833
0.257292
0.282292
0.336458
0.243750
0.345833
0.307292
0.203125
0.266667
0.253125
0.229167
0.257292
0.269792
0.308333
0.282292
0.215625
0.336458
0.243750
0.203125
0.200000
0.225000
0.279167
0.186458
0.241667
0.203125
0.145833
0.162500
0.148958
0.062500
0.116667
0.103125
0.141667
0.141667
0.048958
0.195833
0.103125
0.062500
0.000000
0.025000
0.079167
-0.013542
0.008333
-0.030208
-0.054167
-0.070833
-0.084375
-0.150000
-0.109375
-0.109375
-0.070833
-0.084375
-0.163542
-0.030208
-0.122917
-0.163542
-0.187500
-0.226042
-0.146875
-0.108333
-0.217708
-0.217708
-0.146875
-0.256250
-0.266667
-0.296875
-0.296875
-0.226042
-0.187500
-0.116667
-0.108333
-0.037500
-0.146875
0.025000
-0.013542
-0.187500
-0.054167
-0.084375
0.045833
0.000000
0.086458
0.125000
0.008333
0.015625
0.079167
-0.030208
-0.070833
0.083333
0.091667
0.162500
0.053125
0.191667
0.153125
0.012500